
#(C) 2024 by FIZ Karlsruhe - Leibniz Institute for Information Infrastructure.  All rights reserved.
data_35275-ICSD
_database_code_ICSD 35275
_audit_creation_date 1982-12-31
_chemical_name_common 'Lithium aluminium chloride'
_chemical_formula_structural 'Li Al Cl4'
_chemical_formula_sum 'Al1 Cl4 Li1'
_chemical_name_structure_type LiAlCl4
_exptl_crystal_density_diffrn 1.98
_diffrn_ambient_temperature 293.
_citation_title
'Die Strukturen von Li Al Cl4 und Na Al Cl4 als Funktion der Temperatur'
loop_
_citation_id
_citation_journal_full
_citation_year
_citation_journal_volume
_citation_page_first
_citation_page_last
_citation_journal_id_ASTM
primary 'Zeitschrift fuer Anorganische und Allgemeine Chemie (1950) (DE)' 1982
491 259 265 ZAACAB
loop_
_citation_author_citation_id
_citation_author_name
primary 'Perenthaler, E.'
primary 'Schulz, H.'
primary 'Rabenau, A.'
_cell_length_a 7.004(8)
_cell_length_b 6.503(6)
_cell_length_c 12.996(9)
_cell_angle_alpha 90.
_cell_angle_beta 93.3(1)
_cell_angle_gamma 90.
_cell_volume 590.95
_cell_formula_units_Z 4
_space_group_name_H-M_alt 'P 1 21/c 1'
_space_group_IT_number 14
loop_
_space_group_symop_id
_space_group_symop_operation_xyz
1 'x, -y+1/2, z+1/2'
2 '-x, -y, -z'
3 '-x, y+1/2, -z+1/2'
4 'x, y, z'
loop_
_atom_type_symbol
_atom_type_oxidation_number
Li1+ 1
Al3+ 3
Cl1- -1
loop_
_atom_site_label
_atom_site_type_symbol
_atom_site_symmetry_multiplicity
_atom_site_Wyckoff_symbol
_atom_site_fract_x
_atom_site_fract_y
_atom_site_fract_z
_atom_site_B_iso_or_equiv
_atom_site_occupancy
Li1 Li1+ 4 e 0.1577(9) 0.985(1) 0.3646(5) . 1.
Al1 Al3+ 4 e 0.7059(2) 0.3217(1) 0.89903(8) . 1.
Cl1 Cl1- 4 e 0.6938(1) 0.1832(1) 0.04667(6) . 1.
Cl2 Cl1- 4 e 0.8086(1) 0.6281(1) 0.92859(7) . 1.
Cl3 Cl1- 4 e 0.9255(1) 0.1812(1) 0.81386(6) . 1.
Cl4 Cl1- 4 e 0.4397(1) 0.3140(1) 0.81295(6) . 1.
loop_
_atom_site_aniso_label
_atom_site_aniso_type_symbol
_atom_site_aniso_beta_11
_atom_site_aniso_beta_22
_atom_site_aniso_beta_33
_atom_site_aniso_beta_12
_atom_site_aniso_beta_13
_atom_site_aniso_beta_23
Li1 Li1+ 0.021(2) 0.031 0.0063(5) 0.001(2) -0.0006(8) 0.0021(9)
Al1 Al3+ 0.0096(2) 0.0159(3) 0.00320(7) -0.0010(2) 0.0004(1) -0.0002(1)
Cl1 Cl1- 0.0175(2) 0.0217(3) 0.00369(7) -0.0045(2) 0.0004(1) 0.0019(1)
Cl2 Cl1- 0.0142(2) 0.0147(3) 0.00546(7) -0.0014(2) -0.0011(1) 0.0000(1)
Cl3 Cl1- 0.0117(2) 0.0241(3) 0.00453(7) 0.0015(2) 0.00121(9) -0.0022(1)
Cl4 Cl1- 0.0120(2) 0.0212(3) 0.00452(7) 0.0000(2) -0.0011(1) -0.0015(1)
#End of TTdata_35275-ICSD