# CIF file generated by supercell program. See https://orex.github.io/supercell
# E_e = -6016.8199569315 eV
data_263763-ICSD
_chemical_name_common 'Aluminium germanium lithium phosphate (0.48/1.52/1.48/3)'
_cell_length_a 8.25658
_cell_length_b 8.25658
_cell_length_c 20.6523
_cell_angle_alpha 90
_cell_angle_beta 90
_cell_angle_gamma 120
_space_group_IT_number 1
_space_group_name_H-M_alt 'P 1'
_space_group_name_Hall 'P 1'
loop_
    _space_group_symop_operation_xyz
    x,y,z
loop_ 
    _atom_type_symbol
    _atom_type_oxidation_number
    Al1     +3
    Ge1     +4
    Li1     +1
    Li2     +1
    O1      -2
    O2      -2
    P1      +5
loop_
    _atom_site_label
    _atom_site_type_symbol
    _atom_site_fract_x
    _atom_site_fract_y
    _atom_site_fract_z
    _atom_site_occupancy
    Ge1     Ge   0.00000   0.00000   0.14171   1.000
    Ge1     Ge   0.00000   0.00000   0.35829   1.000
    Ge1     Ge   0.00000   0.00000   0.85829   1.000
    Al1     Al   0.00000   0.00000   0.64171   1.000
    Ge1     Ge   0.66667   0.33333   0.47504   1.000
    Al1     Al   0.66667   0.33333   0.69162   1.000
    Ge1     Ge   0.66667   0.33333   0.19162   1.000
    Ge1     Ge   0.66667   0.33333   0.97504   1.000
    Ge1     Ge   0.33333   0.66667   0.80838   1.000
    Ge1     Ge   0.33333   0.66667   0.02496   1.000
    Al1     Al   0.33333   0.66667   0.52496   1.000
    Ge1     Ge   0.33333   0.66667   0.30838   1.000
    Li1     Li   0.00000   0.00000   0.00000   1.000
    Li1     Li   0.66667   0.33333   0.33333   1.000
    Li1     Li   0.66667   0.33333   0.83333   1.000
    Li1     Li   0.33333   0.66667   0.16667   1.000
    Li2     Li   0.98800   0.21500   0.44260   1.000
    Li2     Li   0.01200   0.78500   0.55740   1.000
    Li2     Li   0.34533   0.89367   0.72407   1.000
    Li2     Li   0.32133   0.43967   0.60927   1.000
    Li2     Li   0.56033   0.88167   0.60927   1.000
    O1      O    0.17660   0.97860   0.18903   1.000
    O1      O    0.02140   0.19800   0.18903   1.000
    O1      O    0.80200   0.82340   0.18903   1.000
    O1      O    0.97860   0.17660   0.31097   1.000
    O1      O    0.19800   0.02140   0.31097   1.000
    O1      O    0.82340   0.80200   0.31097   1.000
    O1      O    0.82340   0.02140   0.81097   1.000
    O1      O    0.97860   0.80200   0.81097   1.000
    O1      O    0.19800   0.17660   0.81097   1.000
    O1      O    0.02140   0.82340   0.68903   1.000
    O1      O    0.80200   0.97860   0.68903   1.000
    O1      O    0.17660   0.19800   0.68903   1.000
    O1      O    0.84327   0.31193   0.52236   1.000
    O1      O    0.68807   0.53133   0.52236   1.000
    O1      O    0.46867   0.15673   0.52236   1.000
    O1      O    0.64527   0.50993   0.64430   1.000
    O1      O    0.86467   0.35473   0.64430   1.000
    O1      O    0.49007   0.13533   0.64430   1.000
    O1      O    0.49007   0.35473   0.14430   1.000
    O1      O    0.64527   0.13533   0.14430   1.000
    O1      O    0.86467   0.50993   0.14430   1.000
    O1      O    0.68807   0.15673   0.02236   1.000
    O1      O    0.46867   0.31193   0.02236   1.000
    O1      O    0.84327   0.53133   0.02236   1.000
    O1      O    0.50993   0.64527   0.85570   1.000
    O1      O    0.35473   0.86467   0.85570   1.000
    O1      O    0.13533   0.49007   0.85570   1.000
    O1      O    0.31193   0.84327   0.97764   1.000
    O1      O    0.53133   0.68807   0.97764   1.000
    O1      O    0.15673   0.46867   0.97764   1.000
    O1      O    0.15673   0.68807   0.47764   1.000
    O1      O    0.31193   0.46867   0.47764   1.000
    O1      O    0.53133   0.84327   0.47764   1.000
    O1      O    0.35473   0.49007   0.35570   1.000
    O1      O    0.13533   0.64527   0.35570   1.000
    O1      O    0.50993   0.86467   0.35570   1.000
    O2      O    0.18650   0.16220   0.08432   1.000
    O2      O    0.83780   0.02430   0.08432   1.000
    O2      O    0.97570   0.81350   0.08432   1.000
    O2      O    0.16220   0.18650   0.41568   1.000
    O2      O    0.02430   0.83780   0.41568   1.000
    O2      O    0.81350   0.97570   0.41568   1.000
    O2      O    0.81350   0.83780   0.91568   1.000
    O2      O    0.16220   0.97570   0.91568   1.000
    O2      O    0.02430   0.18650   0.91568   1.000
    O2      O    0.83780   0.81350   0.58432   1.000
    O2      O    0.97570   0.16220   0.58432   1.000
    O2      O    0.18650   0.02430   0.58432   1.000
    O2      O    0.85317   0.49553   0.41765   1.000
    O2      O    0.50447   0.35763   0.41765   1.000
    O2      O    0.64237   0.14683   0.41765   1.000
    O2      O    0.82887   0.51983   0.74901   1.000
    O2      O    0.69097   0.17113   0.74901   1.000
    O2      O    0.48017   0.30903   0.74901   1.000
    O2      O    0.48017   0.17113   0.24901   1.000
    O2      O    0.82887   0.30903   0.24901   1.000
    O2      O    0.69097   0.51983   0.24901   1.000
    O2      O    0.50447   0.14683   0.91765   1.000
    O2      O    0.64237   0.49553   0.91765   1.000
    O2      O    0.85317   0.35763   0.91765   1.000
    O2      O    0.51983   0.82887   0.75099   1.000
    O2      O    0.17113   0.69097   0.75099   1.000
    O2      O    0.30903   0.48017   0.75099   1.000
    O2      O    0.49553   0.85317   0.08235   1.000
    O2      O    0.35763   0.50447   0.08235   1.000
    O2      O    0.14683   0.64237   0.08235   1.000
    O2      O    0.14683   0.50447   0.58235   1.000
    O2      O    0.49553   0.64237   0.58235   1.000
    O2      O    0.35763   0.85317   0.58235   1.000
    O2      O    0.17113   0.48017   0.25099   1.000
    O2      O    0.30903   0.82887   0.25099   1.000
    O2      O    0.51983   0.69097   0.25099   1.000
    P1      P    0.28740   0.00000   0.25000   1.000
    P1      P    0.00000   0.28740   0.25000   1.000
    P1      P    0.71260   0.71260   0.25000   1.000
    P1      P    0.71260   0.00000   0.75000   1.000
    P1      P    0.00000   0.71260   0.75000   1.000
    P1      P    0.28740   0.28740   0.75000   1.000
    P1      P    0.95407   0.33333   0.58333   1.000
    P1      P    0.66667   0.62073   0.58333   1.000
    P1      P    0.37927   0.04593   0.58333   1.000
    P1      P    0.37927   0.33333   0.08333   1.000
    P1      P    0.66667   0.04593   0.08333   1.000
    P1      P    0.95407   0.62073   0.08333   1.000
    P1      P    0.62073   0.66667   0.91667   1.000
    P1      P    0.33333   0.95407   0.91667   1.000
    P1      P    0.04593   0.37927   0.91667   1.000
    P1      P    0.04593   0.66667   0.41667   1.000
    P1      P    0.33333   0.37927   0.41667   1.000
    P1      P    0.62073   0.95407   0.41667   1.000
