
#(C) 2024 by FIZ Karlsruhe - Leibniz Institute for Information Infrastructure.  All rights reserved.
data_263763-ICSD
_database_code_ICSD 263763
_audit_creation_date 2019-02-01
_chemical_name_common 'Aluminium germanium lithium phosphate (0.48/1.52/1.48/3)'
_chemical_formula_structural 'Al0.48 Ge1.52 Li1.48 (P O4)3'
_chemical_formula_sum 'Al0.48 Ge1.52 Li1.48 O12 P3'
_chemical_name_structure_type Li1+x(Al,Ti)2(PO4)3
_exptl_crystal_density_diffrn 3.42
_citation_title

;
Correlating transport and structural properties in Li1+xAlxGe2-x(PO4)3 (LAGP)
prepared from aqueous solution
;
loop_
_citation_id
_citation_journal_full
_citation_year
_citation_journal_volume
_citation_page_first
_citation_page_last
_citation_journal_id_ASTM
primary 'ACS Applied Materials & Interfaces' 2018 10 10935 10944 AAMICK
loop_
_citation_author_citation_id
_citation_author_name
primary 'Weiss, Manuel'
primary 'Weber, Dominik A.'
primary 'Senyshyn, Anatoliy'
primary 'Janek, Juergen'
primary 'Zeier, Wolfgang G.'
_cell_length_a 8.25658(9)
_cell_length_b 8.25658(9)
_cell_length_c 20.6523(4)
_cell_angle_alpha 90
_cell_angle_beta 90
_cell_angle_gamma 120
_cell_volume 1219.27
_cell_formula_units_Z 6
_space_group_name_H-M_alt 'R -3 c H'
_space_group_IT_number 167
loop_
_space_group_symop_id
_space_group_symop_operation_xyz
1 'x-y, -y, -z+1/2'
2 '-x, -x+y, -z+1/2'
3 'y, x, -z+1/2'
4 'x-y, x, -z'
5 'y, -x+y, -z'
6 '-x, -y, -z'
7 '-x+y, y, z+1/2'
8 'x, x-y, z+1/2'
9 '-y, -x, z+1/2'
10 '-x+y, -x, z'
11 '-y, x-y, z'
12 'x, y, z'
13 'x-y+2/3, -y+1/3, -z+5/6'
14 '-x+2/3, -x+y+1/3, -z+5/6'
15 'y+2/3, x+1/3, -z+5/6'
16 'x-y+2/3, x+1/3, -z+1/3'
17 'y+2/3, -x+y+1/3, -z+1/3'
18 '-x+2/3, -y+1/3, -z+1/3'
19 '-x+y+2/3, y+1/3, z+5/6'
20 'x+2/3, x-y+1/3, z+5/6'
21 '-y+2/3, -x+1/3, z+5/6'
22 '-x+y+2/3, -x+1/3, z+1/3'
23 '-y+2/3, x-y+1/3, z+1/3'
24 'x+2/3, y+1/3, z+1/3'
25 'x-y+1/3, -y+2/3, -z+1/6'
26 '-x+1/3, -x+y+2/3, -z+1/6'
27 'y+1/3, x+2/3, -z+1/6'
28 'x-y+1/3, x+2/3, -z+2/3'
29 'y+1/3, -x+y+2/3, -z+2/3'
30 '-x+1/3, -y+2/3, -z+2/3'
31 '-x+y+1/3, y+2/3, z+1/6'
32 'x+1/3, x-y+2/3, z+1/6'
33 '-y+1/3, -x+2/3, z+1/6'
34 '-x+y+1/3, -x+2/3, z+2/3'
35 '-y+1/3, x-y+2/3, z+2/3'
36 'x+1/3, y+2/3, z+2/3'
loop_
_atom_type_symbol
_atom_type_oxidation_number
P5+ 5
O2- -2
Li1+ 1
Ge4+ 4
Al3+ 3
Li1+ 1
loop_
_atom_site_label
_atom_site_type_symbol
_atom_site_symmetry_multiplicity
_atom_site_Wyckoff_symbol
_atom_site_fract_x
_atom_site_fract_y
_atom_site_fract_z
_atom_site_B_iso_or_equiv
_atom_site_occupancy
P1 P5+ 18 e 0.2874(2) 0. 0.25 0.339514 1.
O1 O2- 36 f 0.1766(2) 0.9786(2) 0.18903(8) 1.63002 1.
O2 O2- 36 f 0.1865(2) 0.1622(2) 0.08432(8) 1.852854 1.
Li1 Li1+ 6 b 0. 0. 0. 2.1 0.65
Ge1 Ge4+ 12 c 0. 0. 0.14171(9) 0.286876 0.76
Al1 Al3+ 12 c 0. 0. 0.14171(9) 0.286876 0.24
Li2 Li1+ 36 f 0.012(7) 0.227(5) 0.0574(17) 2.1 0.139
#End of TTdata_263763-ICSD