
#(C) 2024 by FIZ Karlsruhe - Leibniz Institute for Information Infrastructure.  All rights reserved.
data_98361-ICSD
_database_code_ICSD 98361
_audit_creation_date 2005-04-01
_audit_update_record 2006-04-01
_chemical_name_common 'Trilithium diiron(III) tris(phosphate(V)) - A'
_chemical_formula_structural 'Li3 Fe2 (P O4)3'
_chemical_formula_sum 'Fe2 Li3 O12 P3'
_chemical_name_structure_type Li3Fe2(PO4)3(P21/n)
_exptl_crystal_density_diffrn 3.12
_citation_title

;
A comparative structural and electrochemical study of monoclinic Li3 Fe2 (P
O4)3 and Li3 V2 (P O4)3
;
loop_
_citation_id
_citation_journal_full
_citation_year
_citation_journal_volume
_citation_page_first
_citation_page_last
_citation_journal_id_ASTM
primary 'Journal of Power Sources' 2003 119 278 284 JPSODZ
loop_
_citation_author_citation_id
_citation_author_name
primary 'Patoux, S.'
primary 'Wurm, C.'
primary 'Morcrette, M.'
primary 'Rousse, G.'
primary 'Masquelier, C.'
_cell_length_a 8.571(1)
_cell_length_b 12.017(1)
_cell_length_c 8.616(1)
_cell_angle_alpha 90
_cell_angle_beta 90
_cell_angle_gamma 90.52(1)
_cell_volume 887.39
_cell_formula_units_Z 4
_space_group_name_H-M_alt 'P 1 1 21/n'
_space_group_IT_number 14
loop_
_space_group_symop_id
_space_group_symop_operation_xyz
1 'x+1/2, y+1/2, -z+1/2'
2 '-x, -y, -z'
3 '-x+1/2, -y+1/2, z+1/2'
4 'x, y, z'
loop_
_atom_type_symbol
_atom_type_oxidation_number
Fe3+ 3
P5+ 5
O2- -2
Li1+ 1
loop_
_atom_site_label
_atom_site_type_symbol
_atom_site_symmetry_multiplicity
_atom_site_Wyckoff_symbol
_atom_site_fract_x
_atom_site_fract_y
_atom_site_fract_z
_atom_site_B_iso_or_equiv
_atom_site_occupancy
Fe1 Fe3+ 4 e 0.2462(5) 0.1079(3) 0.4619(4) 0.26(7) 1.
Fe2 Fe3+ 4 e 0.7541(2) 0.3950(3) 0.4708(4) 0.22(7) 1.
P1 P5+ 4 e 0.1030(9) 0.1484(5) 0.1069(8) 0.9(2) 1.
P2 P5+ 4 e 0.60393(9) 0.3495(6) 0.1160(8) 0.6(1) 1.
P3 P5+ 4 e 0.0359(7) 0.4932(6) 0.2512(11) 1.0(1) 1.
O1 O2- 4 e 0.4292(7) 0.3309(5) 0.0885(7) 0.9(1) 1.
O2 O2- 4 e 0.9237(7) 0.1497(5) 0.1151(7) 0.6(1) 1.
O3 O2- 4 e 0.3527(7) 0.2620(5) 0.4806(7) 0.6(1) 1.
O4 O2- 4 e 0.8022(7) 0.2193(5) 0.4972(6) 0.3(2) 1.
O5 O2- 4 e 0.1669(8) 0.0389(5) 0.0580(7) 1.4(1) 1.
O6 O2- 4 e 0.6455(7) 0.4713(5) 0.0920(7) 0.8(1) 1.
O7 O2- 4 e 0.4507(7) 0.0689(4) 0.3678(8) 0.4(1) 1.
O8 O2- 4 e 0.9273(8) 0.4037(5) 0.3132(7) 0.6(1) 1.
O9 O2- 4 e 0.1709(6) 0.4317(4) 0.1710(7) 0.4(1) 1.
O10 O2- 4 e 0.5979(7) 0.0701(4) 0.1273(8) 0.6(1) 1.
O11 O2- 4 e 0.1635(6) 0.1868(5) 0.2636(7) 0.3(2) 1.
O12 O2- 4 e 0.6374(7) 0.3168(5) 0.2868(8) 1.0(1) 1.
Li1 Li1+ 4 e 0.288(2) 0.320(2) 0.275(2) 0.1(4) 1.
Li2 Li1+ 4 e 0.571(2) 0.202(2) 0.419(2) 1.4(5) 1.
Li3 Li1+ 4 e 0.901(3) 0.243(2) 0.291(3) 5.2(7) 1.
#End of TTdata_98361-ICSD