
#(C) 2024 by FIZ Karlsruhe - Leibniz Institute for Information Infrastructure.  All rights reserved.
data_29965-ICSD
_database_code_ICSD 29965
_audit_creation_date 2021-08-01
_chemical_name_common 'Trilithium hexachloridoyttrate'
_chemical_formula_structural 'Li3 Y Cl6'
_chemical_formula_sum 'Cl6 Li3 Y1'
_chemical_name_structure_type Li3ErCl6
_exptl_crystal_density_diffrn 2.44
_diffrn_ambient_temperature 300.
_citation_title

;
Insights into the lithium sub-structure of superionic conductors Li$_3$YCl$_6$
and Li$_3$YBr$_6$
;
loop_
_citation_id
_citation_journal_full
_citation_year
_citation_journal_volume
_citation_page_first
_citation_page_last
_citation_journal_id_ASTM
primary 'Chemistry of Materials' 2021 33 327 337 CMATEX
loop_
_citation_author_citation_id
_citation_author_name
primary 'Schlem, Roman'
primary 'Banik, Ananya'
primary 'Ohno, Saneyuki'
primary 'Suard, Emmanuelle'
primary 'Zeier, Wolfgang G.'
_cell_length_a 11.209266
_cell_length_b 11.209266
_cell_length_c 6.038241
_cell_angle_alpha 90
_cell_angle_beta 90
_cell_angle_gamma 120
_cell_volume 657.04
_cell_formula_units_Z 3
_space_group_name_H-M_alt 'P -3 m 1'
_space_group_IT_number 164
loop_
_space_group_symop_id
_space_group_symop_operation_xyz
1 'x-y, -y, -z'
2 '-x, -x+y, -z'
3 'y, x, -z'
4 'x-y, x, -z'
5 'y, -x+y, -z'
6 '-x, -y, -z'
7 '-x+y, y, z'
8 'x, x-y, z'
9 '-y, -x, z'
10 '-x+y, -x, z'
11 '-y, x-y, z'
12 'x, y, z'
loop_
_atom_type_symbol
_atom_type_oxidation_number
Li1+ 1
Y3+ 3
Cl1- -1
loop_
_atom_site_label
_atom_site_type_symbol
_atom_site_symmetry_multiplicity
_atom_site_Wyckoff_symbol
_atom_site_fract_x
_atom_site_fract_y
_atom_site_fract_z
_atom_site_B_iso_or_equiv
_atom_site_occupancy
Li1 Li1+ 6 g 0.34293 0 0 5.5 0.71263
Li2 Li1+ 6 h 0.32631 0 0.5 4.3 0.78737
Y1 Y3+ 1 a 0 0 0 1.089 1
Y2 Y3+ 2 d 0.3333333 0.6666667 0.50466 1.089 0.77119
Y3 Y3+ 2 d 0.3333333 0.6666667 0.00797 1.089 0.22881
Cl1 Cl1- 6 i 0.11302 -0.11302 0.76567 1.62111 1
Cl2 Cl1- 6 i 0.22045 -0.22045 0.26946 1.62111 1
Cl3 Cl1- 6 i 0.4459 -0.4459 0.75432 1.62111 1
#End of TTdata_29965-ICSD